M 3.00000 1 (8.00, 5.00, 0.00), (50.00, 40.00), 25.00
M 3.00000 0 (5.00, 2.00, 0.00), (48.00, 38.00), 5.00
s 3.000000000 _0_ AGT  --- 0 tcp 40 [0 0 0 0] ------- [0:0 1:0 32 0] [0 0] 0 0
r 3.000000000 _0_ RTR  --- 0 tcp 40 [0 0 0 0] ------- [0:0 1:0 32 0] [0 0] 0 0
s 3.000000000 _0_ RTR  --- 0 AODV 48 [0 0 0 0] ------- [0:255 -1:255 30 0] [0x2 1 1 [1 0] [0 4]] (REQUEST)
s 3.000115000 _0_ MAC  --- 0 AODV 106 [0 ffffffff 0 800] ------- [0:255 -1:255 30 0] [0x2 1 1 [1 0] [0 4]] (REQUEST)
r 3.000963014 _1_ MAC  --- 0 AODV 48 [0 ffffffff 0 800] ------- [0:255 -1:255 30 0] [0x2 1 1 [1 0] [0 4]] (REQUEST)
r 3.000988014 _1_ RTR  --- 0 AODV 48 [0 ffffffff 0 800] ------- [0:255 -1:255 30 0] [0x2 1 1 [1 0] [0 4]] (REQUEST)
s 3.000988014 _1_ RTR  --- 0 AODV 44 [0 0 0 0] ------- [1:255 0:255 30 0] [0x4 1 [1 4] 10.000000] (REPLY)
s 3.001343014 _1_ MAC  --- 0 ARP 86 [0 ffffffff 1 806] ------- [REQUEST 1/1 0/0]
r 3.002031028 _0_ MAC  --- 0 ARP 28 [0 ffffffff 1 806] ------- [REQUEST 1/1 0/0]
s 3.002321028 _0_ MAC  --- 0 RTS 44 [52e 1 0 0] 
r 3.002673043 _1_ MAC  --- 0 RTS 44 [52e 1 0 0] 
s 3.002683043 _1_ MAC  --- 0 CTS 38 [3f4 0 0 0] 
r 3.002987057 _0_ MAC  --- 0 CTS 38 [3f4 0 0 0] 
s 3.002997057 _0_ MAC  --- 0 ARP 86 [13a 1 0 806] ------- [REPLY 0/0 1/1]
r 3.003685071 _1_ MAC  --- 0 ARP 28 [13a 1 0 806] ------- [REPLY 0/0 1/1]
s 3.003695071 _1_ MAC  --- 0 ACK 38 [0 0 0 0] 
r 3.003999086 _0_ MAC  --- 0 ACK 38 [0 0 0 0] 
s 3.004129071 _1_ MAC  --- 0 RTS 44 [5ae 0 1 0] 
r 3.004481086 _0_ MAC  --- 0 RTS 44 [5ae 0 1 0] 
s 3.004491086 _0_ MAC  --- 0 CTS 38 [474 1 0 0] 
r 3.004795100 _1_ MAC  --- 0 CTS 38 [474 1 0 0] 
s 3.004805100 _1_ MAC  --- 0 AODV 102 [13a 0 1 800] ------- [1:255 0:255 30 0] [0x4 1 [1 4] 10.000000] (REPLY)
r 3.005621115 _0_ MAC  --- 0 AODV 44 [13a 0 1 800] ------- [1:255 0:255 30 0] [0x4 1 [1 4] 10.000000] (REPLY)
s 3.005631115 _0_ MAC  --- 0 ACK 38 [0 1 0 0] 
r 3.005646115 _0_ RTR  --- 0 AODV 44 [13a 0 1 800] ------- [1:255 0:255 30 0] [0x4 1 [1 4] 10.000000] (REPLY)
s 3.005646115 _0_ RTR  --- 0 tcp 40 [0 0 0 0] ------- [0:0 1:0 30 1] [0 0] 0 0
r 3.005935129 _1_ MAC  --- 0 ACK 38 [0 1 0 0] 
s 3.006145115 _0_ MAC  --- 0 RTS 44 [58e 1 0 0] 
r 3.006497129 _1_ MAC  --- 0 RTS 44 [58e 1 0 0] 
s 3.006507129 _1_ MAC  --- 0 CTS 38 [454 0 0 0] 
r 3.006811144 _0_ MAC  --- 0 CTS 38 [454 0 0 0] 
s 3.006821144 _0_ MAC  --- 0 tcp 98 [13a 1 0 800] ------- [0:0 1:0 30 1] [0 0] 0 0
r 3.007605158 _1_ MAC  --- 0 tcp 40 [13a 1 0 800] ------- [0:0 1:0 30 1] [0 0] 1 0
s 3.007615158 _1_ MAC  --- 0 ACK 38 [0 0 0 0] 
r 3.007630158 _1_ AGT  --- 0 tcp 40 [13a 1 0 800] ------- [0:0 1:0 30 1] [0 0] 1 0
s 3.007630158 _1_ AGT  --- 1 ack 40 [0 0 0 0] ------- [1:0 0:0 32 0] [0 0] 0 0
r 3.007630158 _1_ RTR  --- 1 ack 40 [0 0 0 0] ------- [1:0 0:0 32 0] [0 0] 0 0
s 3.007630158 _1_ RTR  --- 1 ack 40 [0 0 0 0] ------- [1:0 0:0 30 0] [0 0] 0 0
r 3.007919173 _0_ MAC  --- 0 ACK 38 [0 0 0 0] 
s 3.008009158 _1_ MAC  --- 0 RTS 44 [58e 0 1 0] 
r 3.008361173 _0_ MAC  --- 0 RTS 44 [58e 0 1 0] 
s 3.008371173 _0_ MAC  --- 0 CTS 38 [454 1 0 0] 
r 3.008675188 _1_ MAC  --- 0 CTS 38 [454 1 0 0] 
s 3.008685188 _1_ MAC  --- 1 ack 98 [13a 0 1 800] ------- [1:0 0:0 30 0] [0 0] 0 0
r 3.009469202 _0_ MAC  --- 1 ack 40 [13a 0 1 800] ------- [1:0 0:0 30 0] [0 0] 1 0
s 3.009479202 _0_ MAC  --- 0 ACK 38 [0 1 0 0] 
r 3.009494202 _0_ AGT  --- 1 ack 40 [13a 0 1 800] ------- [1:0 0:0 30 0] [0 0] 1 0
s 3.009494202 _0_ AGT  --- 2 tcp 1040 [0 0 0 0] ------- [0:0 1:0 32 0] [1 0] 0 0
r 3.009494202 _0_ RTR  --- 2 tcp 1040 [0 0 0 0] ------- [0:0 1:0 32 0] [1 0] 0 0
s 3.009494202 _0_ AGT  --- 3 tcp 1040 [0 0 0 0] ------- [0:0 1:0 32 0] [2 0] 0 0
r 3.009494202 _0_ RTR  --- 3 tcp 1040 [0 0 0 0] ------- [0:0 1:0 32 0] [2 0] 0 0
s 3.009494202 _0_ RTR  --- 2 tcp 1040 [0 0 0 0] ------- [0:0 1:0 30 1] [1 0] 0 0
s 3.009494202 _0_ RTR  --- 3 tcp 1040 [0 0 0 0] ------- [0:0 1:0 30 1] [2 0] 0 0
r 3.009783217 _1_ MAC  --- 0 ACK 38 [0 1 0 0] 
s 3.010033202 _0_ MAC  --- 0 RTS 44 [24ce 1 0 0] 
r 3.010385217 _1_ MAC  --- 0 RTS 44 [24ce 1 0 0] 
s 3.010395217 _1_ MAC  --- 0 CTS 38 [2394 0 0 0] 
r 3.010699232 _0_ MAC  --- 0 CTS 38 [2394 0 0 0] 
s 3.010709232 _0_ MAC  --- 2 tcp 1098 [13a 1 0 800] ------- [0:0 1:0 30 1] [1 0] 0 0
r 3.019493247 _1_ MAC  --- 2 tcp 1040 [13a 1 0 800] ------- [0:0 1:0 30 1] [1 0] 1 0
s 3.019503247 _1_ MAC  --- 0 ACK 38 [0 0 0 0] 
r 3.019518247 _1_ AGT  --- 2 tcp 1040 [13a 1 0 800] ------- [0:0 1:0 30 1] [1 0] 1 0
s 3.019518247 _1_ AGT  --- 4 ack 40 [0 0 0 0] ------- [1:0 0:0 32 0] [1 0] 0 0
r 3.019518247 _1_ RTR  --- 4 ack 40 [0 0 0 0] ------- [1:0 0:0 32 0] [1 0] 0 0
s 3.019518247 _1_ RTR  --- 4 ack 40 [0 0 0 0] ------- [1:0 0:0 30 0] [1 0] 0 0
r 3.019807262 _0_ MAC  --- 0 ACK 38 [0 0 0 0] 
s 3.020017247 _1_ MAC  --- 0 RTS 44 [58e 0 1 0] 
r 3.020369262 _0_ MAC  --- 0 RTS 44 [58e 0 1 0] 
s 3.020379262 _0_ MAC  --- 0 CTS 38 [454 1 0 0] 
r 3.020683278 _1_ MAC  --- 0 CTS 38 [454 1 0 0] 
s 3.020693278 _1_ MAC  --- 4 ack 98 [13a 0 1 800] ------- [1:0 0:0 30 0] [1 0] 0 0
r 3.021477293 _0_ MAC  --- 4 ack 40 [13a 0 1 800] ------- [1:0 0:0 30 0] [1 0] 1 0
s 3.021487293 _0_ MAC  --- 0 ACK 38 [0 1 0 0] 
r 3.021502293 _0_ AGT  --- 4 ack 40 [13a 0 1 800] ------- [1:0 0:0 30 0] [1 0] 1 0
s 3.021502293 _0_ AGT  --- 5 tcp 1040 [0 0 0 0] ------- [0:0 1:0 32 0] [3 0] 0 0
r 3.021502293 _0_ RTR  --- 5 tcp 1040 [0 0 0 0] ------- [0:0 1:0 32 0] [3 0] 0 0
s 3.021502293 _0_ AGT  --- 6 tcp 1040 [0 0 0 0] ------- [0:0 1:0 32 0] [4 0] 0 0
r 3.021502293 _0_ RTR  --- 6 tcp 1040 [0 0 0 0] ------- [0:0 1:0 32 0] [4 0] 0 0
s 3.021502293 _0_ RTR  --- 5 tcp 1040 [0 0 0 0] ------- [0:0 1:0 30 1] [3 0] 0 0
s 3.021502293 _0_ RTR  --- 6 tcp 1040 [0 0 0 0] ------- [0:0 1:0 30 1] [4 0] 0 0
r 3.021791309 _1_ MAC  --- 0 ACK 38 [0 1 0 0] 
s 3.021941293 _0_ MAC  --- 0 RTS 44 [24ce 1 0 0] 
r 3.022293309 _1_ MAC  --- 0 RTS 44 [24ce 1 0 0] 
s 3.022303309 _1_ MAC  --- 0 CTS 38 [2394 0 0 0] 
r 3.022607325 _0_ MAC  --- 0 CTS 38 [2394 0 0 0] 
s 3.022617325 _0_ MAC  --- 3 tcp 1098 [13a 1 0 800] ------- [0:0 1:0 30 1] [2 0] 0 0
r 3.031401340 _1_ MAC  --- 3 tcp 1040 [13a 1 0 800] ------- [0:0 1:0 30 1] [2 0] 1 0
s 3.031411340 _1_ MAC  --- 0 ACK 38 [0 0 0 0] 
r 3.031426340 _1_ AGT  --- 3 tcp 1040 [13a 1 0 800] ------- [0:0 1:0 30 1] [2 0] 1 0
s 3.031426340 _1_ AGT  --- 7 ack 40 [0 0 0 0] ------- [1:0 0:0 32 0] [2 0] 0 0
r 3.031426340 _1_ RTR  --- 7 ack 40 [0 0 0 0] ------- [1:0 0:0 32 0] [2 0] 0 0
s 3.031426340 _1_ RTR  --- 7 ack 40 [0 0 0 0] ------- [1:0 0:0 30 0] [2 0] 0 0
r 3.031715357 _0_ MAC  --- 0 ACK 38 [0 0 0 0] 
s 3.031805357 _0_ MAC  --- 0 RTS 44 [24ce 1 0 0] 
r 3.032157373 _1_ MAC  --- 0 RTS 44 [24ce 1 0 0] 
s 3.032167373 _1_ MAC  --- 0 CTS 38 [2394 0 0 0] 
r 3.032471389 _0_ MAC  --- 0 CTS 38 [2394 0 0 0] 
s 3.032481389 _0_ MAC  --- 5 tcp 1098 [13a 1 0 800] ------- [0:0 1:0 30 1] [3 0] 0 0
r 3.041265405 _1_ MAC  --- 5 tcp 1040 [13a 1 0 800] ------- [0:0 1:0 30 1] [3 0] 1 0
s 3.041275405 _1_ MAC  --- 0 ACK 38 [0 0 0 0] 
r 3.041290405 _1_ AGT  --- 5 tcp 1040 [13a 1 0 800] ------- [0:0 1:0 30 1] [3 0] 1 0
s 3.041290405 _1_ AGT  --- 8 ack 40 [0 0 0 0] ------- [1:0 0:0 32 0] [3 0] 0 0
r 3.041290405 _1_ RTR  --- 8 ack 40 [0 0 0 0] ------- [1:0 0:0 32 0] [3 0] 0 0
s 3.041290405 _1_ RTR  --- 8 ack 40 [0 0 0 0] ------- [1:0 0:0 30 0] [3 0] 0 0
r 3.041579422 _0_ MAC  --- 0 ACK 38 [0 0 0 0] 
s 3.041729405 _1_ MAC  --- 0 RTS 44 [58e 0 1 0] 
r 3.042081422 _0_ MAC  --- 0 RTS 44 [58e 0 1 0] 
s 3.042091422 _0_ MAC  --- 0 CTS 38 [454 1 0 0] 
r 3.042395439 _1_ MAC  --- 0 CTS 38 [454 1 0 0] 
s 3.042405439 _1_ MAC  --- 7 ack 98 [13a 0 1 800] ------- [1:0 0:0 30 0] [2 0] 0 0
r 3.043189456 _0_ MAC  --- 7 ack 40 [13a 0 1 800] ------- [1:0 0:0 30 0] [2 0] 1 0
s 3.043199456 _0_ MAC  --- 0 ACK 38 [0 1 0 0] 
r 3.043214456 _0_ AGT  --- 7 ack 40 [13a 0 1 800] ------- [1:0 0:0 30 0] [2 0] 1 0
s 3.043214456 _0_ AGT  --- 9 tcp 1040 [0 0 0 0] ------- [0:0 1:0 32 0] [5 0] 0 0
r 3.043214456 _0_ RTR  --- 9 tcp 1040 [0 0 0 0] ------- [0:0 1:0 32 0] [5 0] 0 0
s 3.043214456 _0_ AGT  --- 10 tcp 1040 [0 0 0 0] ------- [0:0 1:0 32 0] [6 0] 0 0
r 3.043214456 _0_ RTR  --- 10 tcp 1040 [0 0 0 0] ------- [0:0 1:0 32 0] [6 0] 0 0
s 3.043214456 _0_ RTR  --- 9 tcp 1040 [0 0 0 0] ------- [0:0 1:0 30 1] [5 0] 0 0
s 3.043214456 _0_ RTR  --- 10 tcp 1040 [0 0 0 0] ------- [0:0 1:0 30 1] [6 0] 0 0
r 3.043503473 _1_ MAC  --- 0 ACK 38 [0 1 0 0] 
s 3.043713473 _1_ MAC  --- 0 RTS 44 [58e 0 1 0] 
r 3.044065490 _0_ MAC  --- 0 RTS 44 [58e 0 1 0] 
s 3.044075490 _0_ MAC  --- 0 CTS 38 [454 1 0 0] 
r 3.044379507 _1_ MAC  --- 0 CTS 38 [454 1 0 0] 
s 3.044389507 _1_ MAC  --- 8 ack 98 [13a 0 1 800] ------- [1:0 0:0 30 0] [3 0] 0 0
r 3.045173524 _0_ MAC  --- 8 ack 40 [13a 0 1 800] ------- [1:0 0:0 30 0] [3 0] 1 0
s 3.045183524 _0_ MAC  --- 0 ACK 38 [0 1 0 0] 
r 3.045198524 _0_ AGT  --- 8 ack 40 [13a 0 1 800] ------- [1:0 0:0 30 0] [3 0] 1 0
s 3.045198524 _0_ AGT  --- 11 tcp 1040 [0 0 0 0] ------- [0:0 1:0 32 0] [7 0] 0 0
r 3.045198524 _0_ RTR  --- 11 tcp 1040 [0 0 0 0] ------- [0:0 1:0 32 0] [7 0] 0 0
s 3.045198524 _0_ AGT  --- 12 tcp 1040 [0 0 0 0] ------- [0:0 1:0 32 0] [8 0] 0 0
r 3.045198524 _0_ RTR  --- 12 tcp 1040 [0 0 0 0] ------- [0:0 1:0 32 0] [8 0] 0 0
s 3.045198524 _0_ RTR  --- 11 tcp 1040 [0 0 0 0] ------- [0:0 1:0 30 1] [7 0] 0 0
s 3.045198524 _0_ RTR  --- 12 tcp 1040 [0 0 0 0] ------- [0:0 1:0 30 1] [8 0] 0 0
r 3.045487542 _1_ MAC  --- 0 ACK 38 [0 1 0 0] 
s 3.045817524 _0_ MAC  --- 0 RTS 44 [24ce 1 0 0] 
r 3.046169542 _1_ MAC  --- 0 RTS 44 [24ce 1 0 0] 
s 3.046179542 _1_ MAC  --- 0 CTS 38 [2394 0 0 0] 
r 3.046483559 _0_ MAC  --- 0 CTS 38 [2394 0 0 0] 
s 3.046493559 _0_ MAC  --- 6 tcp 1098 [13a 1 0 800] ------- [0:0 1:0 30 1] [4 0] 0 0
r 3.055277576 _1_ MAC  --- 6 tcp 1040 [13a 1 0 800] ------- [0:0 1:0 30 1] [4 0] 1 0
s 3.055287576 _1_ MAC  --- 0 ACK 38 [0 0 0 0] 
r 3.055302576 _1_ AGT  --- 6 tcp 1040 [13a 1 0 800] ------- [0:0 1:0 30 1] [4 0] 1 0
s 3.055302576 _1_ AGT  --- 13 ack 40 [0 0 0 0] ------- [1:0 0:0 32 0] [4 0] 0 0
r 3.055302576 _1_ RTR  --- 13 ack 40 [0 0 0 0] ------- [1:0 0:0 32 0] [4 0] 0 0
s 3.055302576 _1_ RTR  --- 13 ack 40 [0 0 0 0] ------- [1:0 0:0 30 0] [4 0] 0 0
r 3.055591594 _0_ MAC  --- 0 ACK 38 [0 0 0 0] 
s 3.055721576 _1_ MAC  --- 0 RTS 44 [58e 0 1 0] 
r 3.056073594 _0_ MAC  --- 0 RTS 44 [58e 0 1 0] 
s 3.056083594 _0_ MAC  --- 0 CTS 38 [454 1 0 0] 
r 3.056387612 _1_ MAC  --- 0 CTS 38 [454 1 0 0] 
s 3.056397612 _1_ MAC  --- 13 ack 98 [13a 0 1 800] ------- [1:0 0:0 30 0] [4 0] 0 0
r 3.057181630 _0_ MAC  --- 13 ack 40 [13a 0 1 800] ------- [1:0 0:0 30 0] [4 0] 1 0
s 3.057191630 _0_ MAC  --- 0 ACK 38 [0 1 0 0] 
r 3.057206630 _0_ AGT  --- 13 ack 40 [13a 0 1 800] ------- [1:0 0:0 30 0] [4 0] 1 0
s 3.057206630 _0_ AGT  --- 14 tcp 1040 [0 0 0 0] ------- [0:0 1:0 32 0] [9 0] 0 0
r 3.057206630 _0_ RTR  --- 14 tcp 1040 [0 0 0 0] ------- [0:0 1:0 32 0] [9 0] 0 0
s 3.057206630 _0_ AGT  --- 15 tcp 1040 [0 0 0 0] ------- [0:0 1:0 32 0] [10 0] 0 0
r 3.057206630 _0_ RTR  --- 15 tcp 1040 [0 0 0 0] ------- [0:0 1:0 32 0] [10 0] 0 0
s 3.057206630 _0_ RTR  --- 14 tcp 1040 [0 0 0 0] ------- [0:0 1:0 30 1] [9 0] 0 0
s 3.057206630 _0_ RTR  --- 15 tcp 1040 [0 0 0 0] ------- [0:0 1:0 30 1] [10 0] 0 0
r 3.057495648 _1_ MAC  --- 0 ACK 38 [0 1 0 0] 
s 3.057705630 _0_ MAC  --- 0 RTS 44 [24ce 1 0 0] 
r 3.058057648 _1_ MAC  --- 0 RTS 44 [24ce 1 0 0] 
s 3.058067648 _1_ MAC  --- 0 CTS 38 [2394 0 0 0] 
r 3.058371666 _0_ MAC  --- 0 CTS 38 [2394 0 0 0] 
s 3.058381666 _0_ MAC  --- 9 tcp 1098 [13a 1 0 800] ------- [0:0 1:0 30 1] [5 0] 0 0
r 3.067165684 _1_ MAC  --- 9 tcp 1040 [13a 1 0 800] ------- [0:0 1:0 30 1] [5 0] 1 0
s 3.067175684 _1_ MAC  --- 0 ACK 38 [0 0 0 0] 
r 3.067190684 _1_ AGT  --- 9 tcp 1040 [13a 1 0 800] ------- [0:0 1:0 30 1] [5 0] 1 0
s 3.067190684 _1_ AGT  --- 16 ack 40 [0 0 0 0] ------- [1:0 0:0 32 0] [5 0] 0 0
r 3.067190684 _1_ RTR  --- 16 ack 40 [0 0 0 0] ------- [1:0 0:0 32 0] [5 0] 0 0
s 3.067190684 _1_ RTR  --- 16 ack 40 [0 0 0 0] ------- [1:0 0:0 30 0] [5 0] 0 0
r 3.067479702 _0_ MAC  --- 0 ACK 38 [0 0 0 0] 
s 3.067869702 _0_ MAC  --- 0 RTS 44 [24ce 1 0 0] 
r 3.068221721 _1_ MAC  --- 0 RTS 44 [24ce 1 0 0] 
s 3.068231721 _1_ MAC  --- 0 CTS 38 [2394 0 0 0] 
r 3.068535740 _0_ MAC  --- 0 CTS 38 [2394 0 0 0] 
s 3.068545740 _0_ MAC  --- 10 tcp 1098 [13a 1 0 800] ------- [0:0 1:0 30 1] [6 0] 0 0
r 3.077329758 _1_ MAC  --- 10 tcp 1040 [13a 1 0 800] ------- [0:0 1:0 30 1] [6 0] 1 0
s 3.077339758 _1_ MAC  --- 0 ACK 38 [0 0 0 0] 
r 3.077354758 _1_ AGT  --- 10 tcp 1040 [13a 1 0 800] ------- [0:0 1:0 30 1] [6 0] 1 0
s 3.077354758 _1_ AGT  --- 17 ack 40 [0 0 0 0] ------- [1:0 0:0 32 0] [6 0] 0 0
r 3.077354758 _1_ RTR  --- 17 ack 40 [0 0 0 0] ------- [1:0 0:0 32 0] [6 0] 0 0
s 3.077354758 _1_ RTR  --- 17 ack 40 [0 0 0 0] ------- [1:0 0:0 30 0] [6 0] 0 0
r 3.077643778 _0_ MAC  --- 0 ACK 38 [0 0 0 0] 
s 3.077833758 _1_ MAC  --- 0 RTS 44 [58e 0 1 0] 
r 3.078185778 _0_ MAC  --- 0 RTS 44 [58e 0 1 0] 
s 3.078195778 _0_ MAC  --- 0 CTS 38 [454 1 0 0] 
r 3.078499797 _1_ MAC  --- 0 CTS 38 [454 1 0 0] 
s 3.078509797 _1_ MAC  --- 16 ack 98 [13a 0 1 800] ------- [1:0 0:0 30 0] [5 0] 0 0
r 3.079293816 _0_ MAC  --- 16 ack 40 [13a 0 1 800] ------- [1:0 0:0 30 0] [5 0] 1 0
s 3.079303816 _0_ MAC  --- 0 ACK 38 [0 1 0 0] 
r 3.079318816 _0_ AGT  --- 16 ack 40 [13a 0 1 800] ------- [1:0 0:0 30 0] [5 0] 1 0
s 3.079318816 _0_ AGT  --- 18 tcp 1040 [0 0 0 0] ------- [0:0 1:0 32 0] [11 0] 0 0
r 3.079318816 _0_ RTR  --- 18 tcp 1040 [0 0 0 0] ------- [0:0 1:0 32 0] [11 0] 0 0
s 3.079318816 _0_ AGT  --- 19 tcp 1040 [0 0 0 0] ------- [0:0 1:0 32 0] [12 0] 0 0
r 3.079318816 _0_ RTR  --- 19 tcp 1040 [0 0 0 0] ------- [0:0 1:0 32 0] [12 0] 0 0
s 3.079318816 _0_ RTR  --- 18 tcp 1040 [0 0 0 0] ------- [0:0 1:0 30 1] [11 0] 0 0
s 3.079318816 _0_ RTR  --- 19 tcp 1040 [0 0 0 0] ------- [0:0 1:0 30 1] [12 0] 0 0
r 3.079607836 _1_ MAC  --- 0 ACK 38 [0 1 0 0] 
s 3.079837816 _0_ MAC  --- 0 RTS 44 [24ce 1 0 0] 
r 3.080189836 _1_ MAC  --- 0 RTS 44 [24ce 1 0 0] 
s 3.080199836 _1_ MAC  --- 0 CTS 38 [2394 0 0 0] 
r 3.080503855 _0_ MAC  --- 0 CTS 38 [2394 0 0 0] 
s 3.080513855 _0_ MAC  --- 11 tcp 1098 [13a 1 0 800] ------- [0:0 1:0 30 1] [7 0] 0 0
r 3.089297875 _1_ MAC  --- 11 tcp 1040 [13a 1 0 800] ------- [0:0 1:0 30 1] [7 0] 1 0
s 3.089307875 _1_ MAC  --- 0 ACK 38 [0 0 0 0] 
r 3.089322875 _1_ AGT  --- 11 tcp 1040 [13a 1 0 800] ------- [0:0 1:0 30 1] [7 0] 1 0
s 3.089322875 _1_ AGT  --- 20 ack 40 [0 0 0 0] ------- [1:0 0:0 32 0] [7 0] 0 0
r 3.089322875 _1_ RTR  --- 20 ack 40 [0 0 0 0] ------- [1:0 0:0 32 0] [7 0] 0 0
s 3.089322875 _1_ RTR  --- 20 ack 40 [0 0 0 0] ------- [1:0 0:0 30 0] [7 0] 0 0
r 3.089611895 _0_ MAC  --- 0 ACK 38 [0 0 0 0] 
s 3.089681875 _1_ MAC  --- 0 RTS 44 [58e 0 1 0] 
r 3.090033895 _0_ MAC  --- 0 RTS 44 [58e 0 1 0] 
s 3.090043895 _0_ MAC  --- 0 CTS 38 [454 1 0 0] 
r 3.090347915 _1_ MAC  --- 0 CTS 38 [454 1 0 0] 
s 3.090357915 _1_ MAC  --- 17 ack 98 [13a 0 1 800] ------- [1:0 0:0 30 0] [6 0] 0 0
r 3.091141935 _0_ MAC  --- 17 ack 40 [13a 0 1 800] ------- [1:0 0:0 30 0] [6 0] 1 0
s 3.091151935 _0_ MAC  --- 0 ACK 38 [0 1 0 0] 
r 3.091166935 _0_ AGT  --- 17 ack 40 [13a 0 1 800] ------- [1:0 0:0 30 0] [6 0] 1 0
s 3.091166935 _0_ AGT  --- 21 tcp 1040 [0 0 0 0] ------- [0:0 1:0 32 0] [13 0] 0 0
r 3.091166935 _0_ RTR  --- 21 tcp 1040 [0 0 0 0] ------- [0:0 1:0 32 0] [13 0] 0 0
s 3.091166935 _0_ AGT  --- 22 tcp 1040 [0 0 0 0] ------- [0:0 1:0 32 0] [14 0] 0 0
r 3.091166935 _0_ RTR  --- 22 tcp 1040 [0 0 0 0] ------- [0:0 1:0 32 0] [14 0] 0 0
s 3.091166935 _0_ RTR  --- 21 tcp 1040 [0 0 0 0] ------- [0:0 1:0 30 1] [13 0] 0 0
s 3.091166935 _0_ RTR  --- 22 tcp 1040 [0 0 0 0] ------- [0:0 1:0 30 1] [14 0] 0 0
r 3.091455955 _1_ MAC  --- 0 ACK 38 [0 1 0 0] 
s 3.091525955 _1_ MAC  --- 0 RTS 44 [58e 0 1 0] 
r 3.091877976 _0_ MAC  --- 0 RTS 44 [58e 0 1 0] 
s 3.091887976 _0_ MAC  --- 0 CTS 38 [454 1 0 0] 
r 3.092191996 _1_ MAC  --- 0 CTS 38 [454 1 0 0] 
s 3.092201996 _1_ MAC  --- 20 ack 98 [13a 0 1 800] ------- [1:0 0:0 30 0] [7 0] 0 0
r 3.092986016 _0_ MAC  --- 20 ack 40 [13a 0 1 800] ------- [1:0 0:0 30 0] [7 0] 1 0
s 3.092996016 _0_ MAC  --- 0 ACK 38 [0 1 0 0] 
r 3.093011016 _0_ AGT  --- 20 ack 40 [13a 0 1 800] ------- [1:0 0:0 30 0] [7 0] 1 0
s 3.093011016 _0_ AGT  --- 23 tcp 1040 [0 0 0 0] ------- [0:0 1:0 32 0] [15 0] 0 0
r 3.093011016 _0_ RTR  --- 23 tcp 1040 [0 0 0 0] ------- [0:0 1:0 32 0] [15 0] 0 0
s 3.093011016 _0_ AGT  --- 24 tcp 1040 [0 0 0 0] ------- [0:0 1:0 32 0] [16 0] 0 0
r 3.093011016 _0_ RTR  --- 24 tcp 1040 [0 0 0 0] ------- [0:0 1:0 32 0] [16 0] 0 0
s 3.093011016 _0_ RTR  --- 23 tcp 1040 [0 0 0 0] ------- [0:0 1:0 30 1] [15 0] 0 0
s 3.093011016 _0_ RTR  --- 24 tcp 1040 [0 0 0 0] ------- [0:0 1:0 30 1] [16 0] 0 0
r 3.093300036 _1_ MAC  --- 0 ACK 38 [0 1 0 0] 
s 3.093530016 _0_ MAC  --- 0 RTS 44 [24ce 1 0 0] 
r 3.093882036 _1_ MAC  --- 0 RTS 44 [24ce 1 0 0] 
s 3.093892036 _1_ MAC  --- 0 CTS 38 [2394 0 0 0] 
r 3.094196057 _0_ MAC  --- 0 CTS 38 [2394 0 0 0] 
s 3.094206057 _0_ MAC  --- 12 tcp 1098 [13a 1 0 800] ------- [0:0 1:0 30 1] [8 0] 0 0
r 3.102990077 _1_ MAC  --- 12 tcp 1040 [13a 1 0 800] ------- [0:0 1:0 30 1] [8 0] 1 0
s 3.103000077 _1_ MAC  --- 0 ACK 38 [0 0 0 0] 
r 3.103015077 _1_ AGT  --- 12 tcp 1040 [13a 1 0 800] ------- [0:0 1:0 30 1] [8 0] 1 0
s 3.103015077 _1_ AGT  --- 25 ack 40 [0 0 0 0] ------- [1:0 0:0 32 0] [8 0] 0 0
r 3.103015077 _1_ RTR  --- 25 ack 40 [0 0 0 0] ------- [1:0 0:0 32 0] [8 0] 0 0
s 3.103015077 _1_ RTR  --- 25 ack 40 [0 0 0 0] ------- [1:0 0:0 30 0] [8 0] 0 0
r 3.103304098 _0_ MAC  --- 0 ACK 38 [0 0 0 0] 
s 3.103414077 _1_ MAC  --- 0 RTS 44 [58e 0 1 0] 
r 3.103766098 _0_ MAC  --- 0 RTS 44 [58e 0 1 0] 
s 3.103776098 _0_ MAC  --- 0 CTS 38 [454 1 0 0] 
r 3.104080119 _1_ MAC  --- 0 CTS 38 [454 1 0 0] 
s 3.104090119 _1_ MAC  --- 25 ack 98 [13a 0 1 800] ------- [1:0 0:0 30 0] [8 0] 0 0
r 3.104874140 _0_ MAC  --- 25 ack 40 [13a 0 1 800] ------- [1:0 0:0 30 0] [8 0] 1 0
s 3.104884140 _0_ MAC  --- 0 ACK 38 [0 1 0 0] 
r 3.104899140 _0_ AGT  --- 25 ack 40 [13a 0 1 800] ------- [1:0 0:0 30 0] [8 0] 1 0
s 3.104899140 _0_ AGT  --- 26 tcp 1040 [0 0 0 0] ------- [0:0 1:0 32 0] [17 0] 0 0
r 3.104899140 _0_ RTR  --- 26 tcp 1040 [0 0 0 0] ------- [0:0 1:0 32 0] [17 0] 0 0
s 3.104899140 _0_ AGT  --- 27 tcp 1040 [0 0 0 0] ------- [0:0 1:0 32 0] [18 0] 0 0
r 3.104899140 _0_ RTR  --- 27 tcp 1040 [0 0 0 0] ------- [0:0 1:0 32 0] [18 0] 0 0
s 3.104899140 _0_ RTR  --- 26 tcp 1040 [0 0 0 0] ------- [0:0 1:0 30 1] [17 0] 0 0
s 3.104899140 _0_ RTR  --- 27 tcp 1040 [0 0 0 0] ------- [0:0 1:0 30 1] [18 0] 0 0
r 3.105188161 _1_ MAC  --- 0 ACK 38 [0 1 0 0] 
s 3.105618140 _0_ MAC  --- 0 RTS 44 [24ce 1 0 0] 
r 3.105970161 _1_ MAC  --- 0 RTS 44 [24ce 1 0 0] 
s 3.105980161 _1_ MAC  --- 0 CTS 38 [2394 0 0 0] 
r 3.106284183 _0_ MAC  --- 0 CTS 38 [2394 0 0 0] 
s 3.106294183 _0_ MAC  --- 14 tcp 1098 [13a 1 0 800] ------- [0:0 1:0 30 1] [9 0] 0 0
r 3.115078204 _1_ MAC  --- 14 tcp 1040 [13a 1 0 800] ------- [0:0 1:0 30 1] [9 0] 1 0
s 3.115088204 _1_ MAC  --- 0 ACK 38 [0 0 0 0] 
r 3.115103204 _1_ AGT  --- 14 tcp 1040 [13a 1 0 800] ------- [0:0 1:0 30 1] [9 0] 1 0
s 3.115103204 _1_ AGT  --- 28 ack 40 [0 0 0 0] ------- [1:0 0:0 32 0] [9 0] 0 0
r 3.115103204 _1_ RTR  --- 28 ack 40 [0 0 0 0] ------- [1:0 0:0 32 0] [9 0] 0 0
s 3.115103204 _1_ RTR  --- 28 ack 40 [0 0 0 0] ------- [1:0 0:0 30 0] [9 0] 0 0
r 3.115392226 _0_ MAC  --- 0 ACK 38 [0 0 0 0] 
s 3.115842226 _0_ MAC  --- 0 RTS 44 [24ce 1 0 0] 
r 3.116194247 _1_ MAC  --- 0 RTS 44 [24ce 1 0 0] 
s 3.116204247 _1_ MAC  --- 0 CTS 38 [2394 0 0 0] 
r 3.116508269 _0_ MAC  --- 0 CTS 38 [2394 0 0 0] 
s 3.116518269 _0_ MAC  --- 15 tcp 1098 [13a 1 0 800] ------- [0:0 1:0 30 1] [10 0] 0 0
r 3.125302291 _1_ MAC  --- 15 tcp 1040 [13a 1 0 800] ------- [0:0 1:0 30 1] [10 0] 1 0
s 3.125312291 _1_ MAC  --- 0 ACK 38 [0 0 0 0] 
r 3.125327291 _1_ AGT  --- 15 tcp 1040 [13a 1 0 800] ------- [0:0 1:0 30 1] [10 0] 1 0
s 3.125327291 _1_ AGT  --- 29 ack 40 [0 0 0 0] ------- [1:0 0:0 32 0] [10 0] 0 0
r 3.125327291 _1_ RTR  --- 29 ack 40 [0 0 0 0] ------- [1:0 0:0 32 0] [10 0] 0 0
s 3.125327291 _1_ RTR  --- 29 ack 40 [0 0 0 0] ------- [1:0 0:0 30 0] [10 0] 0 0
r 3.125616314 _0_ MAC  --- 0 ACK 38 [0 0 0 0] 
s 3.125846291 _1_ MAC  --- 0 RTS 44 [58e 0 1 0] 
r 3.126198314 _0_ MAC  --- 0 RTS 44 [58e 0 1 0] 
s 3.126208314 _0_ MAC  --- 0 CTS 38 [454 1 0 0] 
r 3.126512336 _1_ MAC  --- 0 CTS 38 [454 1 0 0] 
s 3.126522336 _1_ MAC  --- 28 ack 98 [13a 0 1 800] ------- [1:0 0:0 30 0] [9 0] 0 0
r 3.127306359 _0_ MAC  --- 28 ack 40 [13a 0 1 800] ------- [1:0 0:0 30 0] [9 0] 1 0
s 3.127316359 _0_ MAC  --- 0 ACK 38 [0 1 0 0] 
r 3.127331359 _0_ AGT  --- 28 ack 40 [13a 0 1 800] ------- [1:0 0:0 30 0] [9 0] 1 0
s 3.127331359 _0_ AGT  --- 30 tcp 1040 [0 0 0 0] ------- [0:0 1:0 32 0] [19 0] 0 0
r 3.127331359 _0_ RTR  --- 30 tcp 1040 [0 0 0 0] ------- [0:0 1:0 32 0] [19 0] 0 0
s 3.127331359 _0_ AGT  --- 31 tcp 1040 [0 0 0 0] ------- [0:0 1:0 32 0] [20 0] 0 0
r 3.127331359 _0_ RTR  --- 31 tcp 1040 [0 0 0 0] ------- [0:0 1:0 32 0] [20 0] 0 0
s 3.127331359 _0_ RTR  --- 30 tcp 1040 [0 0 0 0] ------- [0:0 1:0 30 1] [19 0] 0 0
s 3.127331359 _0_ RTR  --- 31 tcp 1040 [0 0 0 0] ------- [0:0 1:0 30 1] [20 0] 0 0
r 3.127620381 _1_ MAC  --- 0 ACK 38 [0 1 0 0] 
s 3.128030359 _0_ MAC  --- 0 RTS 44 [24ce 1 0 0] 
s 3.128030381 _1_ MAC  --- 0 RTS 44 [58e 0 1 0] 
s 3.129816404 _0_ MAC  --- 0 RTS 44 [24ce 1 0 0] 
r 3.130168427 _1_ MAC  --- 0 RTS 44 [24ce 1 0 0] 
s 3.130178427 _1_ MAC  --- 0 CTS 38 [2394 0 0 0] 
r 3.130482450 _0_ MAC  --- 0 CTS 38 [2394 0 0 0] 
s 3.130492450 _0_ MAC  --- 18 tcp 1098 [13a 1 0 800] ------- [0:0 1:0 30 1] [11 0] 0 0
r 3.139276473 _1_ MAC  --- 18 tcp 1040 [13a 1 0 800] ------- [0:0 1:0 30 1] [11 0] 1 0
s 3.139286473 _1_ MAC  --- 0 ACK 38 [0 0 0 0] 
r 3.139301473 _1_ AGT  --- 18 tcp 1040 [13a 1 0 800] ------- [0:0 1:0 30 1] [11 0] 1 0
s 3.139301473 _1_ AGT  --- 32 ack 40 [0 0 0 0] ------- [1:0 0:0 32 0] [11 0] 0 0
r 3.139301473 _1_ RTR  --- 32 ack 40 [0 0 0 0] ------- [1:0 0:0 32 0] [11 0] 0 0
s 3.139301473 _1_ RTR  --- 32 ack 40 [0 0 0 0] ------- [1:0 0:0 30 0] [11 0] 0 0
r 3.139590496 _0_ MAC  --- 0 ACK 38 [0 0 0 0] 
s 3.139740473 _1_ MAC  --- 0 RTS 44 [58e 0 1 0] 
r 3.140092496 _0_ MAC  --- 0 RTS 44 [58e 0 1 0] 
s 3.140102496 _0_ MAC  --- 0 CTS 38 [454 1 0 0] 
r 3.140406519 _1_ MAC  --- 0 CTS 38 [454 1 0 0] 
s 3.140416519 _1_ MAC  --- 29 ack 98 [13a 0 1 800] ------- [1:0 0:0 30 0] [10 0] 0 0
r 3.141200543 _0_ MAC  --- 29 ack 40 [13a 0 1 800] ------- [1:0 0:0 30 0] [10 0] 1 0
s 3.141210543 _0_ MAC  --- 0 ACK 38 [0 1 0 0] 
r 3.141225543 _0_ AGT  --- 29 ack 40 [13a 0 1 800] ------- [1:0 0:0 30 0] [10 0] 1 0
s 3.141225543 _0_ AGT  --- 33 tcp 1040 [0 0 0 0] ------- [0:0 1:0 32 0] [21 0] 0 0
r 3.141225543 _0_ RTR  --- 33 tcp 1040 [0 0 0 0] ------- [0:0 1:0 32 0] [21 0] 0 0
s 3.141225543 _0_ AGT  --- 34 tcp 1040 [0 0 0 0] ------- [0:0 1:0 32 0] [22 0] 0 0
r 3.141225543 _0_ RTR  --- 34 tcp 1040 [0 0 0 0] ------- [0:0 1:0 32 0] [22 0] 0 0
s 3.141225543 _0_ RTR  --- 33 tcp 1040 [0 0 0 0] ------- [0:0 1:0 30 1] [21 0] 0 0
s 3.141225543 _0_ RTR  --- 34 tcp 1040 [0 0 0 0] ------- [0:0 1:0 30 1] [22 0] 0 0
r 3.141514566 _1_ MAC  --- 0 ACK 38 [0 1 0 0] 
s 3.141704566 _1_ MAC  --- 0 RTS 44 [58e 0 1 0] 
r 3.142056590 _0_ MAC  --- 0 RTS 44 [58e 0 1 0] 
s 3.142066590 _0_ MAC  --- 0 CTS 38 [454 1 0 0] 
r 3.142370614 _1_ MAC  --- 0 CTS 38 [454 1 0 0] 
s 3.142380614 _1_ MAC  --- 32 ack 98 [13a 0 1 800] ------- [1:0 0:0 30 0] [11 0] 0 0
r 3.143164637 _0_ MAC  --- 32 ack 40 [13a 0 1 800] ------- [1:0 0:0 30 0] [11 0] 1 0
s 3.143174637 _0_ MAC  --- 0 ACK 38 [0 1 0 0] 
r 3.143189637 _0_ AGT  --- 32 ack 40 [13a 0 1 800] ------- [1:0 0:0 30 0] [11 0] 1 0
s 3.143189637 _0_ AGT  --- 35 tcp 1040 [0 0 0 0] ------- [0:0 1:0 32 0] [23 0] 0 0
r 3.143189637 _0_ RTR  --- 35 tcp 1040 [0 0 0 0] ------- [0:0 1:0 32 0] [23 0] 0 0
s 3.143189637 _0_ AGT  --- 36 tcp 1040 [0 0 0 0] ------- [0:0 1:0 32 0] [24 0] 0 0
r 3.143189637 _0_ RTR  --- 36 tcp 1040 [0 0 0 0] ------- [0:0 1:0 32 0] [24 0] 0 0
s 3.143189637 _0_ RTR  --- 35 tcp 1040 [0 0 0 0] ------- [0:0 1:0 30 1] [23 0] 0 0
s 3.143189637 _0_ RTR  --- 36 tcp 1040 [0 0 0 0] ------- [0:0 1:0 30 1] [24 0] 0 0
r 3.143478661 _1_ MAC  --- 0 ACK 38 [0 1 0 0] 
s 3.143648637 _0_ MAC  --- 0 RTS 44 [24ce 1 0 0] 
r 3.144000661 _1_ MAC  --- 0 RTS 44 [24ce 1 0 0] 
s 3.144010661 _1_ MAC  --- 0 CTS 38 [2394 0 0 0] 
r 3.144314685 _0_ MAC  --- 0 CTS 38 [2394 0 0 0] 
s 3.144324685 _0_ MAC  --- 19 tcp 1098 [13a 1 0 800] ------- [0:0 1:0 30 1] [12 0] 0 0
r 3.153108708 _1_ MAC  --- 19 tcp 1040 [13a 1 0 800] ------- [0:0 1:0 30 1] [12 0] 1 0
s 3.153118708 _1_ MAC  --- 0 ACK 38 [0 0 0 0] 
r 3.153133708 _1_ AGT  --- 19 tcp 1040 [13a 1 0 800] ------- [0:0 1:0 30 1] [12 0] 1 0
s 3.153133708 _1_ AGT  --- 37 ack 40 [0 0 0 0] ------- [1:0 0:0 32 0] [12 0] 0 0
r 3.153133708 _1_ RTR  --- 37 ack 40 [0 0 0 0] ------- [1:0 0:0 32 0] [12 0] 0 0
s 3.153133708 _1_ RTR  --- 37 ack 40 [0 0 0 0] ------- [1:0 0:0 30 0] [12 0] 0 0
r 3.153422733 _0_ MAC  --- 0 ACK 38 [0 0 0 0] 
s 3.153672733 _0_ MAC  --- 0 RTS 44 [24ce 1 0 0] 
r 3.154024757 _1_ MAC  --- 0 RTS 44 [24ce 1 0 0] 
s 3.154034757 _1_ MAC  --- 0 CTS 38 [2394 0 0 0] 
r 3.154338781 _0_ MAC  --- 0 CTS 38 [2394 0 0 0] 
s 3.154348781 _0_ MAC  --- 21 tcp 1098 [13a 1 0 800] ------- [0:0 1:0 30 1] [13 0] 0 0
r 3.163132806 _1_ MAC  --- 21 tcp 1040 [13a 1 0 800] ------- [0:0 1:0 30 1] [13 0] 1 0
s 3.163142806 _1_ MAC  --- 0 ACK 38 [0 0 0 0] 
r 3.163157806 _1_ AGT  --- 21 tcp 1040 [13a 1 0 800] ------- [0:0 1:0 30 1] [13 0] 1 0
s 3.163157806 _1_ AGT  --- 38 ack 40 [0 0 0 0] ------- [1:0 0:0 32 0] [13 0] 0 0
r 3.163157806 _1_ RTR  --- 38 ack 40 [0 0 0 0] ------- [1:0 0:0 32 0] [13 0] 0 0
s 3.163157806 _1_ RTR  --- 38 ack 40 [0 0 0 0] ------- [1:0 0:0 30 0] [13 0] 0 0
r 3.163446831 _0_ MAC  --- 0 ACK 38 [0 0 0 0] 
s 3.163576806 _1_ MAC  --- 0 RTS 44 [58e 0 1 0] 
r 3.163928831 _0_ MAC  --- 0 RTS 44 [58e 0 1 0] 
s 3.163938831 _0_ MAC  --- 0 CTS 38 [454 1 0 0] 
r 3.164242856 _1_ MAC  --- 0 CTS 38 [454 1 0 0] 
s 3.164252856 _1_ MAC  --- 37 ack 98 [13a 0 1 800] ------- [1:0 0:0 30 0] [12 0] 0 0
r 3.165036881 _0_ MAC  --- 37 ack 40 [13a 0 1 800] ------- [1:0 0:0 30 0] [12 0] 1 0
s 3.165046881 _0_ MAC  --- 0 ACK 38 [0 1 0 0] 
r 3.165061881 _0_ AGT  --- 37 ack 40 [13a 0 1 800] ------- [1:0 0:0 30 0] [12 0] 1 0
s 3.165061881 _0_ AGT  --- 39 tcp 1040 [0 0 0 0] ------- [0:0 1:0 32 0] [25 0] 0 0
r 3.165061881 _0_ RTR  --- 39 tcp 1040 [0 0 0 0] ------- [0:0 1:0 32 0] [25 0] 0 0
s 3.165061881 _0_ AGT  --- 40 tcp 1040 [0 0 0 0] ------- [0:0 1:0 32 0] [26 0] 0 0
r 3.165061881 _0_ RTR  --- 40 tcp 1040 [0 0 0 0] ------- [0:0 1:0 32 0] [26 0] 0 0
s 3.165061881 _0_ RTR  --- 39 tcp 1040 [0 0 0 0] ------- [0:0 1:0 30 1] [25 0] 0 0
s 3.165061881 _0_ RTR  --- 40 tcp 1040 [0 0 0 0] ------- [0:0 1:0 30 1] [26 0] 0 0
r 3.165350906 _1_ MAC  --- 0 ACK 38 [0 1 0 0] 
s 3.165420881 _0_ MAC  --- 0 RTS 44 [24ce 1 0 0] 
r 3.165772906 _1_ MAC  --- 0 RTS 44 [24ce 1 0 0] 
s 3.165782906 _1_ MAC  --- 0 CTS 38 [2394 0 0 0] 
r 3.166086931 _0_ MAC  --- 0 CTS 38 [2394 0 0 0] 
s 3.166096931 _0_ MAC  --- 22 tcp 1098 [13a 1 0 800] ------- [0:0 1:0 30 1] [14 0] 0 0
r 3.174880956 _1_ MAC  --- 22 tcp 1040 [13a 1 0 800] ------- [0:0 1:0 30 1] [14 0] 1 0
s 3.174890956 _1_ MAC  --- 0 ACK 38 [0 0 0 0] 
r 3.174905956 _1_ AGT  --- 22 tcp 1040 [13a 1 0 800] ------- [0:0 1:0 30 1] [14 0] 1 0
s 3.174905956 _1_ AGT  --- 41 ack 40 [0 0 0 0] ------- [1:0 0:0 32 0] [14 0] 0 0
r 3.174905956 _1_ RTR  --- 41 ack 40 [0 0 0 0] ------- [1:0 0:0 32 0] [14 0] 0 0
s 3.174905956 _1_ RTR  --- 41 ack 40 [0 0 0 0] ------- [1:0 0:0 30 0] [14 0] 0 0
r 3.175194982 _0_ MAC  --- 0 ACK 38 [0 0 0 0] 
s 3.175464982 _0_ MAC  --- 0 RTS 44 [24ce 1 0 0] 
r 3.175817008 _1_ MAC  --- 0 RTS 44 [24ce 1 0 0] 
s 3.175827008 _1_ MAC  --- 0 CTS 38 [2394 0 0 0] 
r 3.176131034 _0_ MAC  --- 0 CTS 38 [2394 0 0 0] 
s 3.176141034 _0_ MAC  --- 23 tcp 1098 [13a 1 0 800] ------- [0:0 1:0 30 1] [15 0] 0 0
r 3.184925060 _1_ MAC  --- 23 tcp 1040 [13a 1 0 800] ------- [0:0 1:0 30 1] [15 0] 1 0
s 3.184935060 _1_ MAC  --- 0 ACK 38 [0 0 0 0] 
r 3.184950060 _1_ AGT  --- 23 tcp 1040 [13a 1 0 800] ------- [0:0 1:0 30 1] [15 0] 1 0
s 3.184950060 _1_ AGT  --- 42 ack 40 [0 0 0 0] ------- [1:0 0:0 32 0] [15 0] 0 0
r 3.184950060 _1_ RTR  --- 42 ack 40 [0 0 0 0] ------- [1:0 0:0 32 0] [15 0] 0 0
s 3.184950060 _1_ RTR  --- 42 ack 40 [0 0 0 0] ------- [1:0 0:0 30 0] [15 0] 0 0
r 3.185239086 _0_ MAC  --- 0 ACK 38 [0 0 0 0] 
s 3.185489086 _0_ MAC  --- 0 RTS 44 [24ce 1 0 0] 
r 3.185841113 _1_ MAC  --- 0 RTS 44 [24ce 1 0 0] 
s 3.185851113 _1_ MAC  --- 0 CTS 38 [2394 0 0 0] 
r 3.186155139 _0_ MAC  --- 0 CTS 38 [2394 0 0 0] 
s 3.186165139 _0_ MAC  --- 24 tcp 1098 [13a 1 0 800] ------- [0:0 1:0 30 1] [16 0] 0 0
r 3.194949166 _1_ MAC  --- 24 tcp 1040 [13a 1 0 800] ------- [0:0 1:0 30 1] [16 0] 1 0
s 3.194959166 _1_ MAC  --- 0 ACK 38 [0 0 0 0] 
r 3.194974166 _1_ AGT  --- 24 tcp 1040 [13a 1 0 800] ------- [0:0 1:0 30 1] [16 0] 1 0
s 3.194974166 _1_ AGT  --- 43 ack 40 [0 0 0 0] ------- [1:0 0:0 32 0] [16 0] 0 0
r 3.194974166 _1_ RTR  --- 43 ack 40 [0 0 0 0] ------- [1:0 0:0 32 0] [16 0] 0 0
s 3.194974166 _1_ RTR  --- 43 ack 40 [0 0 0 0] ------- [1:0 0:0 30 0] [16 0] 0 0
r 3.195263193 _0_ MAC  --- 0 ACK 38 [0 0 0 0] 
s 3.195393166 _1_ MAC  --- 0 RTS 44 [58e 0 1 0] 
r 3.195745193 _0_ MAC  --- 0 RTS 44 [58e 0 1 0] 
s 3.195755193 _0_ MAC  --- 0 CTS 38 [454 1 0 0] 
r 3.196059220 _1_ MAC  --- 0 CTS 38 [454 1 0 0] 
s 3.196069220 _1_ MAC  --- 38 ack 98 [13a 0 1 800] ------- [1:0 0:0 30 0] [13 0] 0 0
r 3.196853247 _0_ MAC  --- 38 ack 40 [13a 0 1 800] ------- [1:0 0:0 30 0] [13 0] 1 0
s 3.196863247 _0_ MAC  --- 0 ACK 38 [0 1 0 0] 
r 3.196878247 _0_ AGT  --- 38 ack 40 [13a 0 1 800] ------- [1:0 0:0 30 0] [13 0] 1 0
s 3.196878247 _0_ AGT  --- 44 tcp 1040 [0 0 0 0] ------- [0:0 1:0 32 0] [27 0] 0 0
r 3.196878247 _0_ RTR  --- 44 tcp 1040 [0 0 0 0] ------- [0:0 1:0 32 0] [27 0] 0 0
s 3.196878247 _0_ AGT  --- 45 tcp 1040 [0 0 0 0] ------- [0:0 1:0 32 0] [28 0] 0 0
r 3.196878247 _0_ RTR  --- 45 tcp 1040 [0 0 0 0] ------- [0:0 1:0 32 0] [28 0] 0 0